/*--------------------------------*- C++ -*----------------------------------*\
| =========                 |                                                 |
| \\      /  F ield         | OpenFOAM: The Open Source CFD Toolbox           |
|  \\    /   O peration     | Version:  dev                                   |
|   \\  /    A nd           | Web:      www.OpenFOAM.org                      |
|    \\/     M anipulation  |                                                 |
\*---------------------------------------------------------------------------*/
FoamFile
{
    version     2.0;
    format      ascii;
    class       volScalarField;
    object      alphat;
}
// * * * * * * * * * * * * * * * * * * * * * * * * * * * * * * * * * * * * * //

dimensions      [1 -1 -1 0 0 0 0];

internalField   uniform 0;

boundaryField
{
    inlet
    {
        type calculated;
        value $internalField;
    }

    outlet
    {
        type zeroGradient;
    }

    top
    {
        type symmetry;
    }
    obstacle
    {
        type compressible::alphatWallFunction;
        //Prt 0.85;
        value $internalField;
    }

    upwall
    {
        type            symmetry;
    }

    downwall
    {
        type            symmetry;
    }



    front
    {
        type            wedge;
    }
    back
    {
        type            wedge;
    }
}

// ************************************************************************* //
