/*--------------------------------*- C++ -*----------------------------------*\
| =========                 |                                                 |
| \\      /  F ield         | OpenFOAM: The Open Source CFD Toolbox           |
|  \\    /   O peration     | Version:  dev                                   |
|   \\  /    A nd           | Web:      www.OpenFOAM.org                      |
|    \\/     M anipulation  |                                                 |
\*---------------------------------------------------------------------------*/
FoamFile
{
    version     2.0;
    format      ascii;
    class       volScalarField;
    object      im;
}
// * * * * * * * * * * * * * * * * * * * * * * * * * * * * * * * * * * * * * //


dimensions      [0 0 0 0 0 0 0];

internalField   uniform 1.0;

boundaryField
{
    inlet
    {
        type            fixedValue;
        value           uniform 1.0;
    }
    outlet
    {
	type           zeroGradient;
    }

 
    top
    {
        type            symmetry;
    }
    obstacle
    {
        type            zeroGradient;
    }

    upwall
    {
        type            symmetry;
    }

    downwall
    {
        type            symmetry;
    }



    front
    {
        type            wedge;
    }
    back
    {
        type            wedge;
    }
}

// ************************************************************************* //
