/*--------------------------------*- C++ -*----------------------------------*\
| =========                 |                                                 |
| \\      /  F ield         | OpenFOAM: The Open Source CFD Toolbox           |
|  \\    /   O peration     | Version:  2.1.1                                 |
|   \\  /    A nd           | Web:      www.OpenFOAM.org                      |
|    \\/     M anipulation  |                                                 |
\*---------------------------------------------------------------------------*/
FoamFile
{
    version     2.0;
    format      ascii;
    class       volScalarField;
    object      T;
}
// * * * * * * * * * * * * * * * * * * * * * * * * * * * * * * * * * * * * * //
#include        "include/freestreamConditions"
dimensions      [0 0 0 1 0 0 0];

internalField   uniform $Tinlet;

boundaryField
{
    inlet
    {
        type            fixedValue;
        value           uniform $Tinlet;
    }

    outlet
    {
        type            zeroGradient;
    }

    top
    {
        type            symmetry;
    }

    obstacle
    {
        type            zeroGradient;
    }



    upwall
    {
        type            symmetry;
    }

    downwall
    {
        type            symmetry;
    }



    front
    {
        type            wedge;
    }

    back
    {
        type            wedge;
    }
}

// ************************************************************************* //
